 Gaussian 09, Revision A.02,
 Gaussian 09:  EM64L-G09RevA.02 11-Jun-2009

 ---------------
 #P AM1 Opt Freq
 ---------------

 -------
 benzene
 -------
 Symbolic Z-matrix:
 Charge =  0 Multiplicity = 1

 SCF Done:  E(RAM1) =  0.613431797736E-01 A.U. after   12 cycles
 SCF Done:  E(RAM1) =  0.356809415037E-01 A.U. after   13 cycles
 SCF Done:  E(RAM1) =  0.349585086236E-01 A.U. after   13 cycles
 SCF Done:  E(RAM1) =  0.349561923857E-01 A.U. after   13 cycles
 SCF Done:  E(RAM1) =  0.349527227129E-01 A.U. after   14 cycles
 Optimization completed.
    -- Stationary point found.
 Normal termination of Gaussian 09 at Mon Dec 22 20:06:58 2014.

 -------------------------------------------------------------
 #P Geom=AllCheck Guess=TCheck SCRF=Check GenChk RAM1/ZDO Freq
 -------------------------------------------------------------

 benzene
 -------
 Redundant internal coordinates taken from checkpoint file:
 /users/humeniuka/Gaussian2py-0.0.1/Gaussian2py/test_hessian/Gau-12433.chk
 Charge =  0 Multiplicity = 1

                         Standard orientation:
 ---------------------------------------------------------------------
 Center     Atomic      Atomic             Coordinates (Angstroms)
 Number     Number       Type             X           Y           Z
 ---------------------------------------------------------------------
      1          6           0        0.000000   -1.395051    0.000000
      2          6           0       -1.208150   -0.697525    0.000000
      3          6           0       -1.208150    0.697525    0.000000
      4          6           0        0.000000    1.395051    0.000000
      5          6           0        1.208150    0.697526    0.000000
      6          6           0        1.208150   -0.697526    0.000000
      7          1           0        0.000000   -2.494724    0.000000
      8          1           0       -2.160494   -1.247362    0.000000
      9          1           0       -2.160494    1.247362    0.000000
     10          1           0        0.000000    2.494724    0.000000
     11          1           0        2.160494    1.247362    0.000000
     12          1           0        2.160494   -1.247362    0.000000
 ---------------------------------------------------------------------

 SCF Done:  E(RAM1) =  0.349527227129E-01 A.U. after    2 cycles

 The electronic state is 1-A'.
 Alpha  occ. eigenvalues --   -1.43860  -1.15283  -1.15283  -0.84745  -0.84745
 Alpha  occ. eigenvalues --   -0.65619  -0.59250  -0.56596  -0.52041  -0.52041
 Alpha  occ. eigenvalues --   -0.49175  -0.43689  -0.43689  -0.35474  -0.35474
 Alpha virt. eigenvalues --    0.02039   0.02039   0.10944   0.14833   0.14833
 Alpha virt. eigenvalues --    0.14875   0.15409   0.16900   0.16900   0.18827
 Alpha virt. eigenvalues --    0.18827   0.20624   0.20624   0.21054   0.22540

 Mulliken atomic charges:
              1
     1  C   -0.130119
     2  C   -0.130119
     3  C   -0.130119
     4  C   -0.130119
     5  C   -0.130119
     6  C   -0.130119
     7  H    0.130119
     8  H    0.130119
     9  H    0.130119
    10  H    0.130119
    11  H    0.130119
    12  H    0.130119
 Sum of Mulliken atomic charges =   0.00000

 Dipole moment (field-independent basis, Debye):
    X=              0.0000    Y=              0.0000    Z=              0.0000  Tot=              0.0000
 N-N= 1.195994365656D+02 E-N=-1.688334732462D+02  KE=-4.955619464566D+01
  Exact polarizability:  68.606   0.000  68.606   0.000   0.000   9.031
 Approx polarizability:  58.285   0.000  58.285   0.000   0.000   6.910
 Leave Link  601 at Mon Dec 22 20:07:02 2014, MaxMem=   33554432 cpu:       0.0
 (Enter /users/humeniuka/software/qc/gaussian-09.A02/g09/l701.exe)
 Compute integral second derivatives.
 ... and contract with generalized density number  0.
 Leave Link  701 at Mon Dec 22 20:07:02 2014, MaxMem=   33554432 cpu:       0.0
 (Enter /users/humeniuka/software/qc/gaussian-09.A02/g09/l702.exe)
 L702 exits ... SP integral derivatives will be done elsewhere.

                     1                      2                      3
                    A"                     A"                     A"
 Frequencies --   370.7860               370.7861               618.0056
 Red. masses --     2.3023                 2.3023                 1.9355
 Frc consts  --     0.1865                 0.1865                 0.4355
 IR Inten    --     0.0000                 0.0000                 0.0000

                     4                      5                      6
                    A'                     A'                     A"
 Frequencies --   647.7887               647.7908               744.1086
 Red. masses --     6.4600                 6.4600                 1.0848
 Frc consts  --     1.5972                 1.5972                 0.3539
 IR Inten    --     0.0000                 0.0000               127.6257

                     7                      8                      9
                    A"                     A"                     A"
 Frequencies --   891.2407               891.2408               989.3537
 Red. masses --     1.2503                 1.2503                 1.5595
 Frc consts  --     0.5851                 0.5851                 0.8994
 IR Inten    --     0.0000                 0.0000                 0.0000

                    10                     11                     12
                    A"                     A"                     A'
 Frequencies --   989.3538              1011.9518              1028.1906
 Red. masses --     1.5595                 1.7892                 6.8009
 Frc consts  --     0.8994                 1.0795                 4.2360
 IR Inten    --     0.0000                 0.0000                 0.0000

                    13                     14                     15
                    A'                     A'                     A'
 Frequencies --  1145.8428              1145.8463              1178.7110
 Red. masses --     1.2184                 1.2184                 1.1528
 Frc consts  --     0.9425                 0.9425                 0.9437
 IR Inten    --     1.0880                 1.0883                 0.0000

                    16                     17                     18
                    A'                     A'                     A'
 Frequencies --  1221.6509              1221.6549              1276.2205
 Red. masses --     1.0296                 1.0296                 6.2556
 Frc consts  --     0.9054                 0.9054                 6.0031
 IR Inten    --     0.0000                 0.0000                 0.0000

                    19                     20                     21
                    A'                     A'                     A'
 Frequencies --  1328.3824              1366.6961              1579.0519
 Red. masses --     1.2503                 4.8042                 3.9665
 Frc consts  --     1.2999                 5.2870                 5.8270
 IR Inten    --     0.0000                 0.0000                12.1818

                    22                     23                     24
                    A'                     A'                     A'
 Frequencies --  1579.0529              1767.6004              1767.6008
 Red. masses --     3.9664                10.4958                10.4958
 Frc consts  --     5.8270                19.3211                19.3211
 IR Inten    --    12.1824                 0.0000                 0.0000

                    25                     26                     27
                    A'                     A'                     A'
 Frequencies --  3183.7335              3186.8004              3186.8008
 Red. masses --     1.0770                 1.0754                 1.0754
 Frc consts  --     6.4317                 6.4350                 6.4350
 IR Inten    --     0.0000                 0.0000                 0.0000

                    28                     29                     30
                    A'                     A'                     A'
 Frequencies --  3194.5468              3194.5470              3205.1264
 Red. masses --     1.0817                 1.0817                 1.0920
 Frc consts  --     6.5038                 6.5038                 6.6097
 IR Inten    --    88.4291                88.4295                 0.0000

 - Thermochemistry -
 -------------------
 Temperature   298.150 Kelvin.  Pressure   1.00000 Atm.
 Atom     1 has atomic number  6 and mass  12.00000

 Molecular mass:    78.04695 amu.
 Principal axes and moments of inertia in atomic units:
                           1         2         3
     Eigenvalues --   317.39288 317.39289 634.78577
           X            0.00000   1.00000   0.00000
           Y            1.00000   0.00000   0.00000
           Z            0.00000   0.00000   1.00000
 This molecule is an asymmetric top.
 Rotational symmetry number  1.
 Rotational temperatures (Kelvin)      0.27289     0.27289     0.13645
 Rotational constants (GHZ):           5.68614     5.68614     2.84307
 Zero-point vibrational energy     268743.8 (Joules/Mol)
                                   64.23132 (Kcal/Mol)
 Warning -- explicit consideration of   3 degrees of freedom as
           vibrations may cause significant error
 Vibrational temperatures:    533.48   533.48   889.17   932.02   932.03
          (Kelvin)           1070.60  1282.30  1282.30  1423.46  1423.46
                             1455.97  1479.34  1648.61  1648.62  1695.90
                             1757.68  1757.69  1836.19  1911.24  1966.37
                             2271.90  2271.90  2543.18  2543.18  4580.68
                             4585.09  4585.09  4596.23  4596.23  4611.46

 Zero-point correction=                           0.102359 (Hartree/Particle)
 Thermal correction to Energy=                    0.106775
 Thermal correction to Enthalpy=                  0.107719
 Thermal correction to Gibbs Free Energy=         0.074840
 Sum of electronic and zero-point Energies=              0.137312
 Sum of electronic and thermal Energies=                 0.141728
 Sum of electronic and thermal Enthalpies=               0.142672
 Sum of electronic and thermal Free Energies=            0.109793

                     E (Thermal)             CV                S
                      KCal/Mol        Cal/Mol-Kelvin    Cal/Mol-Kelvin
 Total                   67.002             16.818             69.201
 Electronic               0.000              0.000              0.000
 Translational            0.889              2.981             38.979
 Rotational               0.889              2.981             25.662
 Vibrational             65.225             10.856              4.560
 Vibration     1          0.743              1.532              1.077
 Vibration     2          0.743              1.532              1.077
 Vibration     3          0.978              0.994              0.420

 Optimization completed.
    -- Stationary point found.
 Normal termination of Gaussian 09 at Mon Dec 22 20:07:02 2014.
