 Gaussian 09, Revision A.02,
 Gaussian 09:  EM64L-G09RevA.02 11-Jun-2009

 ---------------
 #P AM1 Opt Freq
 ---------------

 ---
 cs2
 ---
 Symbolic Z-matrix:
 Charge =  0 Multiplicity = 1

 SCF Done:  E(RAM1) =  0.756487510151E-01 A.U. after   11 cycles
 SCF Done:  E(RAM1) =  0.347000529896E-01 A.U. after    9 cycles
 SCF Done:  E(RAM1) =  0.278289538162E-01 A.U. after    9 cycles
 SCF Done:  E(RAM1) =  0.278281734166E-01 A.U. after    6 cycles
 Optimization completed.
    -- Stationary point found.
 Normal termination of Gaussian 09 at Mon Dec 22 20:42:11 2014.

 -------------------------------------------------------------
 #P Geom=AllCheck Guess=TCheck SCRF=Check GenChk RAM1/ZDO Freq
 -------------------------------------------------------------

 cs2
 ---
 Redundant internal coordinates taken from checkpoint file:
 /users/humeniuka/Gaussian2py-0.0.1/Gaussian2py/test_hessian/Gau-14447.chk
 Charge =  0 Multiplicity = 1

                         Standard orientation:
 ---------------------------------------------------------------------
 Center     Atomic      Atomic             Coordinates (Angstroms)
 Number     Number       Type             X           Y           Z
 ---------------------------------------------------------------------
      1         16           0        0.000000    0.000000    1.458713
      2          6           0        0.000000    0.000000    0.000000
      3         16           0        0.000000    0.000000   -1.458713
 ---------------------------------------------------------------------

 SCF Done:  E(RAM1) =  0.278281734165E-01 A.U. after    2 cycles

 The electronic state is 1-SGG.
 Alpha  occ. eigenvalues --   -1.17491  -0.80461  -0.54811  -0.54811  -0.51164
 Alpha  occ. eigenvalues --   -0.46954  -0.34474  -0.34474
 Alpha virt. eigenvalues --   -0.03174  -0.03174   0.01657   0.03689

 Mulliken atomic charges:
              1
     1  S    0.271640
     2  C   -0.543281
     3  S    0.271640
 Sum of Mulliken atomic charges =   0.00000

 Dipole moment (field-independent basis, Debye):
    X=              0.0000    Y=              0.0000    Z=              0.0000  Tot=              0.0000
 N-N= 3.910135434864D+01 E-N=-3.804823540940D+01  KE=-3.060599198883D+01
  Exact polarizability:   6.961   0.000   6.961   0.000   0.000 106.063
 Approx polarizability:   4.689   0.000   4.689   0.000   0.000 107.817
 Leave Link  601 at Mon Dec 22 20:42:13 2014, MaxMem=   33554432 cpu:       0.0
 (Enter /users/humeniuka/software/qc/gaussian-09.A02/g09/l701.exe)
 Compute integral second derivatives.
 ... and contract with generalized density number  0.
 Leave Link  701 at Mon Dec 22 20:42:13 2014, MaxMem=   33554432 cpu:       0.0
 (Enter /users/humeniuka/software/qc/gaussian-09.A02/g09/l702.exe)
 L702 exits ... SP integral derivatives will be done elsewhere.

                     1                      2                      3
                    PIU                    PIU                    SGG
 Frequencies --   481.3211               481.3211               681.0913
 Red. masses --    13.3142                13.3142                31.9721
 Frc consts  --     1.8173                 1.8173                 8.7384
 IR Inten    --     0.0051                 0.0051                 0.0000

                     4
                    SGU
 Frequencies --  1367.4025
 Red. masses --    13.3142
 Frc consts  --    14.6675
 IR Inten    --  1706.1172

 - Thermochemistry -
 -------------------
 Temperature   298.150 Kelvin.  Pressure   1.00000 Atm.
 Atom     1 has atomic number 16 and mass  31.97207

 Molecular mass:    75.94414 amu.
 Principal axes and moments of inertia in atomic units:
                           1         2         3
     Eigenvalues --     0.00000 485.89027 485.89027
           X            0.00000   1.00000   0.00000
           Y            0.00000   0.00000   1.00000
           Z            1.00000   0.00000   0.00000
 This molecule is a prolate symmetric top.
 Rotational symmetry number  2.
 Warning -- assumption of classical behavior for rotation
           may cause significant error
 Rotational temperature (Kelvin)      0.17826
 Rotational constant (GHZ):           3.714298
 Zero-point vibrational energy      18010.6 (Joules/Mol)
                                    4.30464 (Kcal/Mol)
 Warning -- explicit consideration of   2 degrees of freedom as
           vibrations may cause significant error
 Vibrational temperatures:    692.51   692.51   979.94  1967.38
          (Kelvin)

 Zero-point correction=                           0.006860 (Hartree/Particle)
 Thermal correction to Energy=                    0.009826
 Thermal correction to Enthalpy=                  0.010770
 Thermal correction to Gibbs Free Energy=        -0.015847
 Sum of electronic and zero-point Energies=              0.034688
 Sum of electronic and thermal Energies=                 0.037654
 Sum of electronic and thermal Enthalpies=               0.038598
 Sum of electronic and thermal Free Energies=            0.011981

                     E (Thermal)             CV                S
                      KCal/Mol        Cal/Mol-Kelvin    Cal/Mol-Kelvin
 Total                    6.166              8.535             56.020
 Electronic               0.000              0.000              0.000
 Translational            0.889              2.981             38.898
 Rotational               0.592              1.987             15.359
 Vibrational              4.685              3.567              1.763
 Vibration     1          0.838              1.291              0.707
 Vibration     2          0.838              1.291              0.707

 Optimization completed.
    -- Stationary point found.
 Normal termination of Gaussian 09 at Mon Dec 22 20:42:13 2014.
